LAMMPS data file using Dreiding for temp

1240  atoms
839  bonds
468  angles
83  dihedrals
0  impropers

5  atom types
9  bond types
3  angle types
30  dihedral types
0  improper types

-1.0 21 xlo xhi
-1.0 21 ylo yhi
-1.0 21 zlo zhi

Masses

  5      1.007900     # H_
  4     12.011000     # C_3
  1     12.011000     # C_2
  3     15.999400     # O_3
  2     15.999400     # O_2

Atoms

     1   1   1    0.01269     18.62219400      3.25218800     11.98129400
     2   1   1   -0.09114     19.28804200      2.11138600     11.72592400
     3   1   1    0.27900     17.48847800      3.90911100     11.23533000
     4   1   2   -0.26208     16.97413700      4.93904100     11.59762000
     5   1   3   -0.30380     17.10922600      3.26428300     10.12520100
     6   1   4    0.05450     13.35485500      1.54617200      4.87300800
     7   1   3   -0.30380     12.34121700      2.02277500      4.05493400
     8   1   1    0.27900     12.10191100      1.15530600      3.07966700
     9   1   2   -0.26208     12.69253700      0.10766700      2.87846700
    10   1   1    0.01269     10.98582500      1.69846300      2.29417400
    11   1   1   -0.09114     10.32637100      2.83863900      2.57085200
    12   1   5    0.05493     10.55407300      3.48405600      3.41643800
    13   1   5    0.05493      9.51576100      3.15256400      1.92327400
    14   1   5    0.05943     14.29996500      1.38830400      4.33370800
    15   1   5    0.05943     13.06410500      0.62584900      5.39834700
    16   1   5    0.05493     20.09968400      1.80129300     12.39190100
    17   1   5    0.05493     19.08815300      1.45171600     10.89139700
    18   1   4   -0.03083     13.48669600      2.66471300      5.81958100
    19   1   4   -0.03597     10.63067600      0.86213400      1.13252500
    20   1   5    0.02888     11.25755200     -0.03029700      1.05383500
    21   1   5    0.02888     10.77196600      1.45441200      0.22812100
    22   1   5    0.02888      9.59539200      0.53890000      1.24325700
    23   1   4   -0.03597     19.02301700      4.05833800     13.18279700
    24   1   5    0.02888     19.85243700      3.60431400     13.73537000
    25   1   5    0.02888     18.18064600      4.14602600     13.87511800
    26   1   5    0.02888     19.34814300      5.05516200     12.87090600
    27   1   5    0.02990     12.56222300      2.85958000      6.37901900
    28   1   5    0.02990     13.77025500      3.60220900      5.32140800
    29   1   4   -0.05257     14.55023300      2.20283700      6.70977900
    30   1   5    0.02751     14.27644500      1.27452800      7.23317500
    31   1   4   -0.05257     14.68097200      3.33082900      7.64457100
    32   1   5    0.02751     15.48673100      2.01976700      6.16006000
    33   1   5    0.02751     13.78871500      3.46858100      8.26829100
    34   1   5    0.02751     14.94991200      4.27208800      7.14741600
    35   1   4   -0.03083     15.79959000      2.85162600      8.44965900
    36   1   5    0.02990     15.51736300      1.91634500      8.94907300
    37   1   4    0.05450     16.02356100      3.89636200      9.44772200
    38   1   5    0.02990     16.68936500      2.73807700      7.81684300
    39   1   5    0.05943     15.07032500      4.00405300      9.99675700
    40   1   5    0.05943     16.24359700      4.82418900      8.88932800
    41   2   3   -0.33860      7.42336100     17.75351000     15.69362900
    42   3   5    0.16930      7.66446300     16.81515200     15.71158800
    43   3   5    0.16930      6.66564800     17.78898400     15.09065200
    44   4   3   -0.33860     20.00122500      9.24500100      9.26714100
    45   3   5    0.16930     20.00006000      9.24803400      8.29814300
    46   3   5    0.16930     19.97455600     10.18418900      9.50417200
    47   5   3   -0.33860     11.25061700     17.23743500      1.32403600
    48   3   5    0.16930     11.53609300     16.38217500      0.96907100
    49   3   5    0.16930     10.51127000     17.01311300      1.90885700
    50   6   3   -0.33860     13.50382500      3.76347900      3.14382000
    51   3   5    0.16930     14.14815400      3.11228200      2.82798500
    52   3   5    0.16930     14.01346100      4.58518200      3.20741400
    53   7   3   -0.33860     14.21540300     10.05403700     14.57037500
    54   3   5    0.16930     14.60578100      9.17301700     14.46851000
    55   3   5    0.16930     13.57456600     10.11129300     13.84579300
    56   8   3   -0.33860     11.46307700     17.08866800     14.77636000
    57   3   5    0.16930     11.52123400     17.80664800     15.42450300
    58   3   5    0.16930     10.65052900     16.61969500     15.01884500
    59   9   3   -0.33860      6.92060800      0.52937900      8.16316000
    60   3   5    0.16930      6.58237800      1.42547300      8.01624300
    61   3   5    0.16930      7.48655700      0.36382600      7.39422200
    62  10   3   -0.33860     17.52922900      6.79095700     -0.00015400
    63   3   5    0.16930     17.58552400      6.17150900      0.74286900
    64   3   5    0.16930     17.08332300      7.56556600      0.37416900
    65  11   3   -0.33860      1.99547000      1.19791500      3.72969400
    66   3   5    0.16930      2.27805600      0.53719100      4.37973800
    67   3   5    0.16930      2.20194100      2.04516200      4.15220200
    68  12   3   -0.33860     11.86527700      0.67736500      7.39095500
    69   3   5    0.16930     12.52339700     -0.00488100      7.59191700
    70   3   5    0.16930     11.32115100      0.27981100      6.69464500
    71  13   3   -0.33860      5.69770000     18.91761100      2.39286900
    72   3   5    0.16930      6.05594900     18.03649400      2.20778000
    73   3   5    0.16930      6.26591100     19.25740900      3.10043100
    74  14   3   -0.33860     16.95906400     15.22010300      1.96082700
    75   3   5    0.16930     16.08185600     15.11786800      2.35960200
    76   3   5    0.16930     17.36969800     14.34949800      2.07217400
    77  15   3   -0.33860     -0.00005000      4.16404500     16.90752400
    78   3   5    0.16930      0.81566800      4.62135400     17.16137300
    79   3   5    0.16930      0.31012600      3.34515200     16.49258500
    80  16   3   -0.33860     14.68113600      6.46433300     14.82965900
    81   3   5    0.16930     14.43330300      5.52814100     14.79664600
    82   3   5    0.16930     14.03097600      6.89888500     14.25744700
    83  17   3   -0.33860     19.52703500     12.09394100     17.77502200
    84   3   5    0.16930     18.77793600     11.63963500     18.18905600
    85   3   5    0.16930     19.73382900     11.54759900     17.00190000
    86  18   3   -0.33860     -0.00005200     12.88039400      7.32601600
    87   3   5    0.16930     -0.00056700     13.71609400      6.83553400
    88   3   5    0.16930      0.66426600     13.01575000      8.01835200
    89  19   3   -0.33860      6.88826900     13.51294700      4.42411800
    90   3   5    0.16930      5.94083600     13.49673100      4.62678700
    91   3   5    0.16930      6.95573100     13.03766000      3.58238100
    92  20   3   -0.33860      1.99033400      5.89707800     19.99155000
    93   3   5    0.16930      1.07050600      6.20099500     19.96877200
    94   3   5    0.16930      2.11928800      5.47639300     19.12820400
    95  21   3   -0.33860      4.20106500      6.11349200     11.76021700
    96   3   5    0.16930      5.16278200      6.00613600     11.81065000
    97   3   5    0.16930      3.90784800      5.35313700     11.23595300
    98  22   3   -0.33860     12.58326900     19.28408900      8.10684600
    99   3   5    0.16930     12.99238000     20.00030500      7.59828800
   100   3   5    0.16930     11.93726000     19.73630400      8.67000100
   101  23   3   -0.33860     14.94858500      8.25468600     11.87485500
   102   3   5    0.16930     14.12050900      7.89603400     12.22788000
   103   3   5    0.16930     15.25338700      7.57417600     11.25600600
   104  24   3   -0.33860     15.99035500     13.52661500      3.87588900
   105   3   5    0.16930     16.90526300     13.72056900      4.12944900
   106   3   5    0.16930     16.07896700     12.91534800      3.12925000
   107  25   3   -0.33860     17.09674600     19.88425700      8.24946000
   108   3   5    0.16930     17.62356000     20.00022100      9.05443700
   109   3   5    0.16930     17.75866700     19.77456700      7.55031900
   110  26   3   -0.33860      9.47823600      5.38759400      3.65756000
   111   3   5    0.16930      8.88496000      4.94416700      3.03277000
   112   3   5    0.16930      9.30916800      4.93885000      4.49959000
   113  27   3   -0.33860      2.17156200      4.81679300      3.85374400
   114   3   5    0.16930      1.29834400      5.03570400      4.21226200
   115   3   5    0.16930      2.54015600      4.19465700      4.49876800
   116  28   3   -0.33860     18.25004800      2.20568900      2.04585300
   117   3   5    0.16930     18.28300100      3.04182200      1.55721800
   118   3   5    0.16930     17.30246100      2.02311800      2.13369500
   119  29   3   -0.33860     11.83872000     14.17074100      2.52056200
   120   3   5    0.16930     11.06688600     14.52764500      2.05595600
   121   3   5    0.16930     12.22880300     13.55176900      1.88520500
   122  30   3   -0.33860      9.13038200     19.44761200     10.85949000
   123   3   5    0.16930      9.96872700     18.97511400     10.74595300
   124   3   5    0.16930      9.27717900     20.00006500     11.64193300
   125  31   3   -0.33860     13.96244800      2.29020600     14.34406800
   126   3   5    0.16930     13.98538600      3.24775800     14.19731900
   127   3   5    0.16930     13.44269600      2.19019300     15.15574800
   128  32   3   -0.33860      3.03082200      9.96203300      2.67552700
   129   3   5    0.16930      2.07623800     10.12632500      2.64823800
   130   3   5    0.16930      3.10182300      9.04445500      2.97880900
   131  33   3   -0.33860      3.52625000      2.33175300     14.90161300
   132   3   5    0.16930      4.27988000      2.88724000     15.15150100
   133   3   5    0.16930      2.79909300      2.96179500     14.78646000
   134  34   3   -0.33860      7.14995600      5.98662900     15.03909500
   135   3   5    0.16930      7.25102200      5.24035400     14.42931900
   136   3   5    0.16930      6.73773700      6.67679300     14.49806000
   137  35   3   -0.33860     16.14242100      5.46784600      5.08638300
   138   3   5    0.16930     15.19845600      5.31922600      4.92572900
   139   3   5    0.16930     16.44184500      5.94462800      4.29771700
   140  36   3   -0.33860      4.50335900     17.10127000      4.14855100
   141   3   5    0.16930      4.44360200     16.91541500      3.19941700
   142   3   5    0.16930      5.32965400     17.59948500      4.23792800
   143  37   3   -0.33860     14.43169400     16.58882100      8.24480700
   144   3   5    0.16930     14.45916300     16.48711600      9.20806600
   145   3   5    0.16930     13.90301400     17.38945500      8.10896400
   146  38   3   -0.33860     13.26939600     12.49810100     12.54277300
   147   3   5    0.16930     13.23992000     11.83001300     11.84151900
   148   3   5    0.16930     12.72193100     13.22077100     12.20071900
   149  39   3   -0.33860      6.34847000      9.53747000     15.18484600
   150   3   5    0.16930      7.30347200      9.64912100     15.30515300
   151   3   5    0.16930      6.04813100     10.40603900     14.87767500
   152  40   3   -0.33860      3.30063100     18.17795000      0.93515500
   153   3   5    0.16930      2.69752200     18.60866100      0.31088500
   154   3   5    0.16930      3.48200300     18.86309500      1.59595100
   155  41   3   -0.33860      1.74743200     15.27689600      4.92546000
   156   3   5    0.16930      1.58068600     14.78984800      5.74640300
   157   3   5    0.16930      1.58086500     14.62469700      4.22842200
   158  42   3   -0.33860     11.81391900      4.40377900      9.71707300
   159   3   5    0.16930     11.65503700      5.35947600      9.73624800
   160   3   5    0.16930     11.24380300      4.05758000     10.41998500
   161  43   3   -0.33860      8.73225700     15.09520100     16.83482600
   162   3   5    0.16930      9.35417600     15.82900500     16.71771700
   163   3   5    0.16930      9.28739800     14.36576700     17.14901400
   164  44   3   -0.33860     17.66981700     10.98134000      1.53448700
   165   3   5    0.16930     16.80876500     10.53801900      1.56646700
   166   3   5    0.16930     18.19903300     10.51287600      2.19739200
   167  45   3   -0.33860      0.83735100      2.89617300     19.29004800
   168   3   5    0.16930      1.52103700      3.17691900     18.66337300
   169   3   5    0.16930      0.00692800      3.14786100     18.85874800
   170  46   3   -0.33860      1.82639200      7.84949200     17.68008000
   171   3   5    0.16930      2.64724900      7.69252100     17.18965000
   172   3   5    0.16930      1.34579700      7.01129600     17.60642200
   173  47   3   -0.33860      9.80496400      6.53766000      9.57268300
   174   3   5    0.16930      9.12309500      7.21451400      9.69873600
   175   3   5    0.16930      9.55751100      5.83738300     10.19505700
   176  48   3   -0.33860      7.29955300     16.09778200      4.85226300
   177   3   5    0.16930      7.53395400     17.01201600      4.63271900
   178   3   5    0.16930      6.69286900     15.83512100      4.14380400
   179  49   3   -0.33860      7.32576400      4.01408700      4.27514100
   180   3   5    0.16930      7.73199600      3.48062800      4.97468700
   181   3   5    0.16930      7.18052400      3.38317800      3.55415000
   182  50   3   -0.33860     15.57425700      5.68757100     -0.00538500
   183   3   5    0.16930     15.25107100      6.36945800      0.60251900
   184   3   5    0.16930     14.92443000      4.97349600      0.07702900
   185  51   3   -0.33860      2.95651200      2.85192300     12.05699900
   186   3   5    0.16930      3.39453000      1.99201900     11.96940300
   187   3   5    0.16930      2.41737200      2.92275200     11.25495000
   188  52   3   -0.33860     12.96408600     12.63885900     20.00073400
   189   3   5    0.16930     13.90810400     12.85320700     19.95770600
   190   3   5    0.16930     12.94138000     11.67127300     19.95349800
   191  53   3   -0.33860      6.22805000      2.11812900     12.57283100
   192   3   5    0.16930      5.78312300      2.27810900     13.41865300
   193   3   5    0.16930      5.56315400      2.35720500     11.90971300
   194  54   3   -0.33860      5.70708800      6.74572100      6.68553000
   195   3   5    0.16930      6.31076600      7.18495000      7.30328200
   196   3   5    0.16930      5.01025100      6.38628600      7.25491100
   197  55   3   -0.33860     13.24511900      3.84790100      0.94403200
   198   3   5    0.16930     13.06388200      4.75571600      1.23037500
   199   3   5    0.16930     12.47190000      3.34829300      1.24651100
   200  56   3   -0.33860     19.98419900      4.64209700      0.52801600
   201   3   5    0.16930     19.17634800      4.72894600      0.00000000
   202   3   5    0.16930     20.00000000      5.44793500      1.06592500
   203  57   3   -0.33860     -0.00053500      1.63751600      8.16493000
   204   3   5    0.16930      0.38132100      1.02915400      7.51450800
   205   3   5    0.16930      0.16629000      2.51549400      7.79037200
   206  58   3   -0.33860      7.57154800     17.26488900      6.85012500
   207   3   5    0.16930      7.93137500     18.14922900      6.68448900
   208   3   5    0.16930      6.88710900     17.41238300      7.52001900
   209  59   3   -0.33860     17.85829800      8.58178700     13.19503300
   210   3   5    0.16930     17.00436800      8.47739700     12.74908000
   211   3   5    0.16930     18.19600900      9.42574700     12.85939400
   212  60   3   -0.33860     14.22720000      7.05970300      6.45102300
   213   3   5    0.16930     14.78419900      7.33370600      5.70695200
   214   3   5    0.16930     13.32332800      7.16544700      6.11815400
   215  61   3   -0.33860     12.99909200     13.00880000     14.67164900
   216   3   5    0.16930     13.83093900     13.50533500     14.69286700
   217   3   5    0.16930     13.27521900     12.08521900     14.77025500
   218  62   3   -0.33860      0.67697300      6.10531400      8.12590800
   219   3   5    0.16930      1.32812100      5.72807100      7.51544700
   220   3   5    0.16930      1.15005900      6.15720600      8.96998500
   221  63   3   -0.33860      7.16447600     15.64084700     19.57825200
   222   3   5    0.16930      7.48835100     15.44324300     18.68661000
   223   3   5    0.16930      6.72664500     16.50005100     19.48316700
   224  64   3   -0.33860     19.49264200     16.93427800     16.95359400
   225   3   5    0.16930     20.00014800     16.45436900     16.28196000
   226   3   5    0.16930     19.21729500     16.24456600     17.57605000
   227  65   3   -0.33860     16.95340700     14.53235100      8.50894400
   228   3   5    0.16930     17.01826600     13.69425100      8.99097000
   229   3   5    0.16930     17.75035500     15.01635500      8.77273200
   230  66   3   -0.33860      9.97700900     11.08119800     20.00232300
   231   3   5    0.16930      9.72781500     10.67830800     19.15701300
   232   3   5    0.16930      9.53427500     11.94306400     19.99036600
   233  67   3   -0.33860      0.50117700      7.86325500     12.50575800
   234   3   5    0.16930     -0.00125300      7.26564300     11.93183100
   235   3   5    0.16930     -0.00067000      8.69170400     12.47762700
   236  68   3   -0.33860     16.28274200     15.13302700     14.75855800
   237   3   5    0.16930     16.58442600     15.09212400     13.83862200
   238   3   5    0.16930     15.34290200     15.35782400     14.68689300
   239  69   3   -0.33860      2.69715300      8.66057300     14.79760700
   240   3   5    0.16930      1.96807400      8.08472100     15.07293600
   241   3   5    0.16930      3.47315400      8.28242600     15.23782900
   242  70   3   -0.33860      4.20261500      0.83673600      7.74668500
   243   3   5    0.16930      4.74228900      0.25403300      8.30182100
   244   3   5    0.16930      4.40376400      1.72570200      8.07569400
   245  71   3   -0.33860     15.16702500      6.43999200     17.64993000
   246   3   5    0.16930     15.14989500      5.47501100     17.56341500
   247   3   5    0.16930     14.51123700      6.74450500     17.00480700
   248  72   3   -0.33860     11.25253300     14.39313800     16.13000000
   249   3   5    0.16930     11.21430900     13.45861600     15.87667200
   250   3   5    0.16930     12.08461700     14.70627800     15.74457900
   251  73   3   -0.33860      4.28491500     11.47012900      8.77383100
   252   3   5    0.16930      4.65328700     12.36459600      8.83039400
   253   3   5    0.16930      3.38867200     11.56312800      9.13029900
   254  74   3   -0.33860      5.33877300      7.05731000      2.48622900
   255   3   5    0.16930      4.65119700      7.44949400      3.04515500
   256   3   5    0.16930      5.43492700      7.68756300      1.75650000
   257  75   3   -0.33860      3.52063300      3.72188900      7.00576800
   258   3   5    0.16930      4.27487400      4.20224500      7.37905800
   259   3   5    0.16930      2.95218000      4.42033400      6.64799000
   260  76   3   -0.33860     14.19803100     11.79810000      3.35768900
   261   3   5    0.16930     14.34166100     11.32602100      4.19164300
   262   3   5    0.16930     14.68151500     11.27090200      2.70402600
   263  77   3   -0.33860     20.00012200      4.21682700      8.71519100
   264   3   5    0.16930     19.92286100      3.87722800      7.81094000
   265   3   5    0.16930     19.97365100      3.42086500      9.26720100
   266  78   3   -0.33860      5.55483200     18.36364800      9.19143700
   267   3   5    0.16930      5.56482100     18.78729400     10.06286900
   268   3   5    0.16930      5.88586100     19.05052700      8.59345200
   269  79   3   -0.33860      6.77089800     15.28028600      9.20338900
   270   3   5    0.16930      6.15625900     16.02893800      9.17683800
   271   3   5    0.16930      7.49398000     15.55020600      8.61750000
   272  80   3   -0.33860      2.45218300      5.79986700     16.06874900
   273   3   5    0.16930      2.77008100      4.99540900     15.63199400
   274   3   5    0.16930      1.60884300      5.98690400     15.62970100
   275  81   3   -0.33860     13.98340700      3.67650700     18.92865600
   276   3   5    0.16930     13.05730400      3.40787300     19.02424300
   277   3   5    0.16930     14.44400400      3.17933100     19.62121400
   278  82   3   -0.33860      8.15708000      1.64308500     -0.00151300
   279   3   5    0.16930      7.94323400      2.04794000      0.85249500
   280   3   5    0.16930      7.65235500      0.81590700     -0.00133600
   281  83   3   -0.33860     10.43552900      9.32103100     14.94624800
   282   3   5    0.16930     10.11665400      8.56364000     15.45971200
   283   3   5    0.16930      9.64489500      9.86638300     14.81795800
   284  84   3   -0.33860      8.59136700     11.99059300     12.33904500
   285   3   5    0.16930      9.48231800     11.63734600     12.48184100
   286   3   5    0.16930      8.53991700     12.74688300     12.94265800
   287  85   3   -0.33860     13.72742500      8.00355100     -0.00134100
   288   3   5    0.16930     14.48439700      8.42703600      0.43065500
   289   3   5    0.16930     12.96082700      8.34171800      0.48542500
   290  86   3   -0.33860     16.04017200     12.08115400     14.11338400
   291   3   5    0.16930     16.26482000     12.95133300     14.47572300
   292   3   5    0.16930     15.24980800     12.24748600     13.57800800
   293  87   3   -0.33860      8.22547200     19.06293400      4.18192700
   294   3   5    0.16930      7.98881700     20.00018700      4.24915200
   295   3   5    0.16930      9.18954200     19.07135300      4.08462200
   296  88   3   -0.33860     16.64276000     11.91449500     16.55355400
   297   3   5    0.16930     17.35227100     12.54005300     16.34322500
   298   3   5    0.16930     16.80744200     11.16584600     15.96078500
   299  89   3   -0.33860     17.51396300     15.69776800      6.24748000
   300   3   5    0.16930     18.37832000     15.73607700      6.68381500
   301   3   5    0.16930     17.42047900     14.76702700      5.99459400
   302  90   3   -0.33860     17.97304700     18.77744400      0.21261200
   303   3   5    0.16930     18.72374800     18.20280700     -0.00000900
   304   3   5    0.16930     17.19719800     18.23725400     -0.00004200
   305  91   3   -0.33860     16.11855700     12.89084700     18.99932100
   306   3   5    0.16930     17.08054600     12.77477000     19.00773400
   307   3   5    0.16930     15.96082500     13.58518500     19.65657600
   308  92   3   -0.33860     12.71728100     15.19256800     13.69443600
   309   3   5    0.16930     11.75102300     15.22241500     13.62793800
   310   3   5    0.16930     13.02135500     15.60210400     12.87054900
   311  93   3   -0.33860      2.48741700      1.79562700      6.75748000
   312   3   5    0.16930      2.35355500      0.85753300      6.55492700
   313   3   5    0.16930      1.75921900      2.24045000      6.29831800
   314  94   3   -0.33860      7.53992100      7.24418900     11.26509200
   315   3   5    0.16930      7.91971500      8.13522100     11.29313700
   316   3   5    0.16930      6.99497800      7.19675200     12.06494000
   317  95   3   -0.33860     16.94455300      7.65273800      2.92045100
   318   3   5    0.16930     16.39082300      7.05295700      2.39832700
   319   3   5    0.16930     16.70083100      8.53435400      2.60057100
   320  96   3   -0.33860     14.90122800     14.69524700      6.34412600
   321   3   5    0.16930     15.39521400     13.90763100      6.07098400
   322   3   5    0.16930     15.48784800     15.13026800      6.98099700
   323  97   3   -0.33860      6.92634500     19.84121800     14.34212300
   324   3   5    0.16930      7.85892300     20.00022500     14.55184600
   325   3   5    0.16930      6.46748400     20.00004800     15.18068700
   326  98   3   -0.33860      9.84777400      9.53198100      3.80069200
   327   3   5    0.16930     10.53573800      8.87604500      3.61248900
   328   3   5    0.16930      9.80901600     10.06838000      2.99462600
   329  99   3   -0.33860      4.75288300      6.56914400     19.06477700
   330   3   5    0.16930      4.61717200      5.88169000     19.73407200
   331   3   5    0.16930      3.95527200      6.52270300     18.51647900
   332 100   3   -0.33860      1.84365400     18.71942000     15.96237900
   333   3   5    0.16930      1.20751100     17.98918300     15.93008100
   334   3   5    0.16930      2.53250800     18.40321400     16.56608700
   335 101   3   -0.33860      6.07883100     18.30414500     13.01586400
   336   3   5    0.16930      5.14681400     18.03898500     13.01658300
   337   3   5    0.16930      6.15091100     18.90407900     12.25833400
   338 102   3   -0.33860      8.65652200     10.27073700     10.96866700
   339   3   5    0.16930      8.79390600     11.02301100     10.37353900
   340   3   5    0.16930      7.71708700     10.32396300     11.20018100
   341 103   3   -0.33860     16.57511000      8.80919000     15.38857900
   342   3   5    0.16930     17.46264200      9.18097100     15.27441800
   343   3   5    0.16930     16.67397900      8.18997000     16.12733600
   344 104   3   -0.33860     14.77687400      9.10124600     16.83815600
   345   3   5    0.16930     15.44001600      9.78950500     16.99787800
   346   3   5    0.16930     14.51013100      8.82244700     17.72702600
   347 105   3   -0.33860      9.41688000     19.34863100      8.17975400
   348   3   5    0.16930      9.75772500     20.00018800      8.81083700
   349   3   5    0.16930      9.53530600     19.77402700      7.31720900
   350 106   3   -0.33860      2.55241700     13.48069900     18.59528700
   351   3   5    0.16930      1.68119200     13.06908400     18.49277700
   352   3   5    0.16930      2.96317700     13.37939800     17.72351600
   353 107   3   -0.33860     15.78537800     11.37491400      8.49293400
   354   3   5    0.16930     15.38266400     10.49408900      8.52351900
   355   3   5    0.16930     15.54747100     11.71071200      7.61566000
   356 108   3   -0.33860     13.43762100      8.70352700      4.54952200
   357   3   5    0.16930     12.90625000      9.13730900      5.23395400
   358   3   5    0.16930     14.28993400      9.16287000      4.58873300
   359 109   3   -0.33860     12.77827700      4.35593800     12.72923200
   360   3   5    0.16930     12.92886400      5.29924000     12.89193500
   361   3   5    0.16930     12.95977600      4.24968100     11.78332600
   362 110   3   -0.33860     13.62398800      7.85948100      2.52673900
   363   3   5    0.16930     14.52655300      8.19997700      2.61842600
   364   3   5    0.16930     13.73768600      7.01744500      2.06088900
   365 111   3   -0.33860     18.01498900     10.17365500      8.50426600
   366   3   5    0.16930     17.38648200      9.53426700      8.13666700
   367   3   5    0.16930     17.60095400     10.45917500      9.33253100
   368 112   3   -0.33860     15.34723600      0.35250100      1.03017100
   369   3   5    0.16930     15.58323500     -0.00006100      0.15898100
   370   3   5    0.16930     16.10630300      0.12540700      1.58803600
   371 113   3   -0.33860      3.91824700      6.81437500      5.36585300
   372   3   5    0.16930      3.77867600      5.86847200      5.20851900
   373   3   5    0.16930      3.14987700      7.07980600      5.89322700
   374 114   3   -0.33860     13.12933900      4.17371200     16.96317800
   375   3   5    0.16930     13.00927600      5.09968100     17.22228100
   376   3   5    0.16930     13.15051300      4.20248200     15.99483200
   377 115   3   -0.33860      0.48650100     10.37752700     -0.00010000
   378   3   5    0.16930      0.12922700     11.27324500      0.09482800
   379   3   5    0.16930      0.08289800      9.88586500      0.73088800
   380 116   3   -0.33860      6.97184700      8.08079500      0.08452500
   381   3   5    0.16930      6.65096400      7.17060700     -0.00242000
   382   3   5    0.16930      7.88004600      7.97902200      0.40668300
   383 117   3   -0.33860     11.77097900      5.75452200     19.81363100
   384   3   5    0.16930     11.80301900      5.93404300     18.86194200
   385   3   5    0.16930     12.62200500      5.33054100     20.00062100
   386 118   3   -0.33860      2.16238200     11.47343200      0.91113800
   387   3   5    0.16930      2.48053000     12.38391200      0.81746600
   388   3   5    0.16930      2.67649300     10.97733400      0.25650300
   389 119   3   -0.33860      3.26958000     10.78796700      5.16953100
   390   3   5    0.16930      2.55984700     10.20228600      5.47321500
   391   3   5    0.16930      3.87313700     10.19737800      4.69424800
   392 120   3   -0.33860     10.87316200     12.78880400     17.94368400
   393   3   5    0.16930     10.04125600     12.33425900     17.74296300
   394   3   5    0.16930     11.25834400     12.26540500     18.66247300
   395 121   3   -0.33860      1.99582400      0.72372400      9.64860200
   396   3   5    0.16930      2.89139600      1.08169600      9.55493400
   397   3   5    0.16930      1.45093500      1.50259500      9.83681700
   398 122   3   -0.33860      6.17016600      4.08012200      0.92878700
   399   3   5    0.16930      6.71740000      4.74910800      1.36692000
   400   3   5    0.16930      6.72675800      3.76155100      0.20236600